REMARK  14 active torsions:
REMARK  status: ('A' for Active; 'I' for Inactive)
REMARK    1  A    between atoms: S_1  and  N_4 
REMARK    2  A    between atoms: S_1  and  C_31 
REMARK    3  A    between atoms: O_7  and  C_6 
REMARK    4  A    between atoms: O_14  and  C_15 
REMARK    5  A    between atoms: O_14  and  C_11 
REMARK    6  A    between atoms: N_4  and  C_5 
REMARK    7  A    between atoms: N_4  and  C_27 
REMARK    8  A    between atoms: N_10  and  C_9 
REMARK       I    between atoms: N_10  and  C_11 
REMARK    9  A    between atoms: N_37  and  C_34 
REMARK   10  A    between atoms: C_6  and  C_9 
REMARK   11  A    between atoms: C_6  and  C_5 
REMARK   12  A    between atoms: C_9  and  C_20 
REMARK   13  A    between atoms: C_27  and  C_28 
REMARK   14  A    between atoms: C_20  and  C_21 
ROOT
HETATM    1  S   UNL     1       3.556  -0.365   1.392  1.00  0.00     0.260 S 
HETATM    2  O   UNL     1       2.768  -1.499   1.837  1.00  0.00    -0.200 OA
HETATM    3  O   UNL     1       4.685   0.076   2.190  1.00  0.00    -0.200 OA
ENDROOT
BRANCH   1   4
HETATM    4  N   UNL     1       2.509   0.973   1.082  1.00  0.00    -0.304 N 
BRANCH   4   5
HETATM    5  C   UNL     1       1.160   0.686   0.540  1.00  0.00     0.169 C 
BRANCH   5   6
HETATM    6  C   UNL     1       0.179   0.452   1.691  1.00  0.00     0.160 C 
BRANCH   6   7
HETATM    7  O   UNL     1      -0.197   1.707   2.257  1.00  0.00    -0.392 OA
HETATM    8  H   UNL     1      -0.670   2.211   1.573  1.00  0.00     0.210 HD
ENDBRANCH   6   7
BRANCH   6   9
HETATM    9  C   UNL     1      -1.092  -0.300   1.237  1.00  0.00     0.121 C 
BRANCH   9  10
HETATM   10  N   UNL     1      -1.810   0.465   0.237  1.00  0.00    -0.329 N 
HETATM   11  C   UNL     1      -3.085   0.949   0.420  1.00  0.00     0.361 C 
HETATM   12  O   UNL     1      -3.772   0.805   1.426  1.00  0.00    -0.238 OA
HETATM   13  H   UNL     1      -1.356   0.648  -0.653  1.00  0.00     0.165 HD
BRANCH  11  14
HETATM   14  O   UNL     1      -3.482   1.625  -0.699  1.00  0.00    -0.296 OA
BRANCH  14  15
HETATM   15  C   UNL     1      -4.790   2.185  -0.655  1.00  0.00     0.159 C 
HETATM   16  C   UNL     1      -4.885   3.350  -1.609  1.00  0.00     0.061 C 
HETATM   17  C   UNL     1      -5.082   2.655  -2.942  1.00  0.00     0.170 C 
HETATM   18  O   UNL     1      -5.779   1.431  -2.672  1.00  0.00    -0.389 OA
HETATM   19  C   UNL     1      -5.770   1.198  -1.253  1.00  0.00     0.200 C 
ENDBRANCH  14  15
ENDBRANCH  11  14
ENDBRANCH   9  10
BRANCH   9  20
HETATM   20  C   UNL     1      -0.809  -1.708   0.677  1.00  0.00     0.066 C 
BRANCH  20  21
HETATM   21  C   UNL     1      -2.018  -2.609   0.646  1.00  0.00    -0.056 A 
HETATM   22  C   UNL     1      -2.315  -3.416   1.745  1.00  0.00     0.007 A 
HETATM   23  C   UNL     1      -3.433  -4.249   1.717  1.00  0.00     0.001 A 
HETATM   24  C   UNL     1      -4.255  -4.275   0.590  1.00  0.00     0.000 A 
HETATM   25  C   UNL     1      -3.958  -3.469  -0.509  1.00  0.00     0.001 A 
HETATM   26  C   UNL     1      -2.840  -2.635  -0.481  1.00  0.00     0.007 A 
ENDBRANCH  20  21
ENDBRANCH   9  20
ENDBRANCH   6   9
ENDBRANCH   5   6
ENDBRANCH   4   5
BRANCH   4  27
HETATM   27  C   UNL     1       3.108   2.191   0.477  1.00  0.00     0.139 C 
BRANCH  27  28
HETATM   28  C   UNL     1       2.403   3.467   0.952  1.00  0.00    -0.004 C 
HETATM   29  C   UNL     1       2.928   4.713   0.237  1.00  0.00     0.011 C 
HETATM   30  C   UNL     1       2.481   3.644   2.469  1.00  0.00     0.011 C 
ENDBRANCH  27  28
ENDBRANCH   4  27
ENDBRANCH   1   4
BRANCH   1  31
HETATM   31  C   UNL     1       4.173  -0.754  -0.222  1.00  0.00     0.079 A 
HETATM   32  C   UNL     1       5.338  -0.146  -0.688  1.00  0.00     0.027 A 
HETATM   33  C   UNL     1       5.825  -0.454  -1.958  1.00  0.00     0.030 A 
HETATM   34  C   UNL     1       5.146  -1.369  -2.763  1.00  0.00     0.025 A 
HETATM   35  C   UNL     1       3.980  -1.977  -2.297  1.00  0.00     0.030 A 
HETATM   36  C   UNL     1       3.493  -1.669  -1.026  1.00  0.00     0.027 A 
BRANCH  34  37
HETATM   37  N   UNL     1       5.638  -1.680  -4.047  1.00  0.00    -0.399 N 
HETATM   38  H   UNL     1       5.146  -2.343  -4.631  1.00  0.00     0.156 HD
HETATM   39  H   UNL     1       6.483  -1.239  -4.386  1.00  0.00     0.156 HD
ENDBRANCH  34  37
ENDBRANCH   1  31
TORSDOF 14
